 Gaussian 16, Revision A.03,
 Gaussian 16:  ES64L-G16RevA.03 25-Dec-2016

 ------------------
 #T B3LYP 6-31g opt
 ------------------

 Symbolic Z-matrix:
 Charge =  0 Multiplicity = 1

 SCF Done:  E(RB3LYP) =  -210.113311711     A.U. after   13 cycles
 SCF Done:  E(RB3LYP) =  -210.114061839     A.U. after   11 cycles
 SCF Done:  E(RB3LYP) =  -210.114091728     A.U. after    9 cycles
 SCF Done:  E(RB3LYP) =  -210.114095484     A.U. after    8 cycles
 Optimization completed.
    -- Stationary point found.

                         Standard orientation:
 ---------------------------------------------------------------------
 Center     Atomic      Atomic             Coordinates (Angstroms)
 Number     Number       Type             X           Y           Z
 ---------------------------------------------------------------------
      1          7           0        0.000000    0.000000    1.129845
      2          6           0        0.000000    1.134027    0.331508
      3          6           0       -0.000000   -1.134027    0.331508
      4          6           0        0.000000    0.715786   -0.986193
      5          6           0       -0.000000   -0.715786   -0.986193
      6          1           0        0.000000    0.000000    2.135892
      7          1           0        0.000000    2.123532    0.759183
      8          1           0       -0.000000   -2.123532    0.759183
      9          1           0        0.000000    1.358587   -1.853473
     10          1           0       -0.000000   -1.358587   -1.853473
 ---------------------------------------------------------------------

 The electronic state is 1-A1.
 Alpha  occ. eigenvalues --  -14.36958 -10.19780 -10.19777 -10.15966 -10.15934
 Alpha  occ. eigenvalues --   -0.96755  -0.76591  -0.71480  -0.58528  -0.55814
 Alpha  occ. eigenvalues --   -0.53938  -0.42588  -0.41909  -0.39426  -0.38456
 Alpha  occ. eigenvalues --   -0.36861  -0.23426  -0.20490
 Alpha virt. eigenvalues --    0.04648   0.08034   0.09543   0.14058   0.16358
 Alpha virt. eigenvalues --    0.17075   0.18348   0.23652   0.24313   0.34337
 Alpha virt. eigenvalues --    0.37628   0.44660   0.55926   0.57755   0.60596

 Mulliken charges:
               1
     1  N   -0.662902
     2  C    0.083256
     3  C    0.083256
     4  C   -0.174748
     5  C   -0.174748
     6  H    0.317995
     7  H    0.143256
     8  H    0.143256
     9  H    0.120690
    10  H    0.120690
 Sum of Mulliken charges =  -0.00000

 Dipole moment (field-independent basis, Debye):
    X=             -0.0000    Y=             -0.0000    Z=              1.8971  Tot=              1.8971
 1\1\GINC-NODE19\FOpt\RB3LYP\6-31G\C4H5N1\ROOT\02-Nov-2018\0\\#T B3LYP
 6-31g opt\\\0,1\N,1.1306067328,0.,0.\C,0.3322689249,1.1340273585,0.\C,
 0.3322689249,-1.1340273585,0.\C,-0.9854318818,0.7157855431,0.\C,-0.985
 4318818,-0.7157855431,0.\H,2.1366538364,0.,0.\H,0.7599445808,2.1235318
 034,0.\H,0.7599445808,-2.1235318034,0.\H,-1.8527119084,1.3585865949,0.
 \H,-1.8527119084,-1.3585865949,0.\\Version=ES64L-G16RevA.03\State=1-A1
 \HF=-210.1140955\RMSD=6.806e-09\RMSF=8.059e-05\Dipole=0.7463571,0.,0.\
 Quadrupole=3.2004488,0.9216979,-4.1221467,0.,0.,0.\PG=C02V [C2(N1H1),S
 GV(C4H4)]\\@

 Normal termination of Gaussian 16 at Fri Nov  2 01:48:49 2018.
