 Gaussian 09, Revision D.01,
 Gaussian 09:  ES64L-G09RevD.01 24-Apr-2013

 ------------------
 #T B3LYP 6-31g opt
 ------------------

 Symbolic Z-matrix:
 Charge =  0 Multiplicity = 1

 SCF Done:  E(RB3LYP) =  -210.113308450     A.U. after   13 cycles
 SCF Done:  E(RB3LYP) =  -210.114058161     A.U. after   12 cycles
 SCF Done:  E(RB3LYP) =  -210.114088085     A.U. after    9 cycles
 SCF Done:  E(RB3LYP) =  -210.114091843     A.U. after    8 cycles
 Optimization completed.
    -- Stationary point found.

                         Standard orientation:
 ---------------------------------------------------------------------
 Center     Atomic      Atomic             Coordinates (Angstroms)
 Number     Number       Type             X           Y           Z
 ---------------------------------------------------------------------
      1          7           0        0.000000    0.000000    1.129821
      2          6           0        0.000000    1.134023    0.331510
      3          6           0        0.000000   -1.134023    0.331510
      4          6           0        0.000000    0.715801   -0.986182
      5          6           0        0.000000   -0.715801   -0.986182
      6          1           0        0.000000    0.000000    2.135863
      7          1           0        0.000000    2.123537    0.759189
      8          1           0        0.000000   -2.123537    0.759189
      9          1           0        0.000000    1.358615   -1.853466
     10          1           0        0.000000   -1.358615   -1.853466
 ---------------------------------------------------------------------

 The electronic state is 1-A1.
 Alpha  occ. eigenvalues --  -14.36958 -10.19780 -10.19777 -10.15966 -10.15933
 Alpha  occ. eigenvalues --   -0.96756  -0.76590  -0.71480  -0.58527  -0.55814
 Alpha  occ. eigenvalues --   -0.53938  -0.42587  -0.41909  -0.39427  -0.38457
 Alpha  occ. eigenvalues --   -0.36860  -0.23426  -0.20491
 Alpha virt. eigenvalues --    0.04649   0.08035   0.09543   0.14058   0.16357
 Alpha virt. eigenvalues --    0.17075   0.18347   0.23652   0.24314   0.34337
 Alpha virt. eigenvalues --    0.37627   0.44660   0.55928   0.57756   0.60597

 Mulliken charges:
               1
     1  N   -0.662947
     2  C    0.083278
     3  C    0.083278
     4  C   -0.174737
     5  C   -0.174737
     6  H    0.318000
     7  H    0.143255
     8  H    0.143255
     9  H    0.120678
    10  H    0.120678
 Sum of Mulliken charges =   0.00000

 Dipole moment (field-independent basis, Debye):
    X=              0.0000    Y=              0.0000    Z=              1.8972  Tot=              1.8972
 1\1\GINC-NODE16\FOpt\RB3LYP\6-31G\C4H5N1\ROOT\14-Sep-2016\0\\#T B3LYP
 6-31g opt\\\0,1\N,1.1305829387,0.,0.\C,0.3322718178,1.1340232421,0.\C,
 0.3322718178,-1.1340232421,0.\C,-0.9854203894,0.7158014295,0.\C,-0.985
 4203894,-0.7158014294,0.\H,2.1366240324,0.,0.\H,0.7599500481,2.1235373
 038,0.\H,0.7599500481,-2.1235373038,0.\H,-1.852704962,1.3586147511,0.\
 H,-1.852704962,-1.3586147511,0.\\Version=ES64L-G09RevD.01\State=1-A1\H
 F=-210.1140918\RMSD=6.805e-09\RMSF=8.038e-05\Dipole=0.7464061,0.,0.\Qu
 adrupole=3.2002748,0.9217044,-4.1219791,0.,0.,0.\PG=C02V [C2(N1H1),SGV
 (C4H4)]\\@

 Normal termination of Gaussian 09 at Wed Sep 14 13:50:39 2016.
