 Gaussian 16, Revision A.03,
 Gaussian 16:  ES64L-G16RevA.03 25-Dec-2016

 ------------------------------------
 # B3LYP 6-31g TD(singlets,nstates=4)
 ------------------------------------

 -----------------------------------------
 HCOOH molecule: transition density matrix
 -----------------------------------------
 Symbolic Z-matrix:
 Charge =  0 Multiplicity = 1

                         Standard orientation:
 ---------------------------------------------------------------------
 Center     Atomic      Atomic             Coordinates (Angstroms)
 Number     Number       Type             X           Y           Z
 ---------------------------------------------------------------------
      1          6           0        0.000000    0.432859    0.000000
      2          8           0       -1.046289   -0.453200   -0.000000
      3          8           0        1.186318    0.120154    0.000000
      4          1           0       -0.392427    1.451216   -0.000000
      5          1           0       -0.727806   -1.384003   -0.000000
 ---------------------------------------------------------------------

 SCF Done:  E(RB3LYP) =  -189.686346250     A.U. after   13 cycles

 Excitation energies and oscillator strengths:

 Excited State   1:      Singlet-A"     5.4305 eV  228.31 nm  f=0.0010  <S**2>=0.000
      12 -> 13         0.70680
 This state for optimization and/or second-order correction.
 Total Energy, E(TD-HF/TD-DFT) =  -189.486779057
 Copying the excited state density for this state as the 1-particle RhoCI density.

 Excited State   2:      Singlet-A'     7.9495 eV  155.96 nm  f=0.0398  <S**2>=0.000
      11 -> 13         0.51536
      12 -> 14        -0.46729

 Excited State   3:      Singlet-A"     8.5543 eV  144.94 nm  f=0.0007  <S**2>=0.000
      10 -> 13         0.70154

 Excited State   4:      Singlet-A'     8.9658 eV  138.29 nm  f=0.1842  <S**2>=0.000
      11 -> 13         0.43559
      12 -> 14         0.52298
      12 -> 16        -0.14982

 The electronic state is 1-A'.
 Alpha  occ. eigenvalues --  -19.21212 -19.16796 -10.34301  -1.12911  -1.04682
 Alpha  occ. eigenvalues --   -0.68124  -0.53614  -0.48377  -0.45365  -0.40034
 Alpha  occ. eigenvalues --   -0.33431  -0.29785
 Alpha virt. eigenvalues --   -0.02415   0.05190   0.12479   0.23089   0.25663
 Alpha virt. eigenvalues --    0.50463   0.54537   0.65761   0.70497   0.78657
 Alpha virt. eigenvalues --    0.85844   0.89543   0.92580   0.98298   1.00315

 Mulliken charges:
               1
     1  C    0.351111
     2  O   -0.523176
     3  O   -0.381886
     4  H    0.168898
     5  H    0.385053
 Sum of Mulliken charges =   0.00000

 Dipole moment (field-independent basis, Debye):
    X=             -1.3418    Y=             -0.4725    Z=             -0.0000  Tot=              1.4226
 Quadrupole moment (field-independent basis, Debye-Ang):
   XX=            -22.9957   YY=            -12.2672   ZZ=            -16.8193
   XY=              0.1127   XZ=             -0.0000   YZ=             -0.0000

 Normal termination of Gaussian 16 at Fri Nov  2 01:41:53 2018.
