 Gaussian 09, Revision D.01,
 Gaussian 09:  EM64L-G09RevD.01 24-Apr-2013

 ------------------------------------
 # B3LYP 6-31g TD(singlets,nstates=4)
 ------------------------------------

 -----------------------------------------
 HCOOH molecule: transition density matrix
 -----------------------------------------
 Symbolic Z-matrix:
 Charge =  0 Multiplicity = 1

                         Standard orientation:
 ---------------------------------------------------------------------
 Center     Atomic      Atomic             Coordinates (Angstroms)
 Number     Number       Type             X           Y           Z
 ---------------------------------------------------------------------
      1          6           0        0.000000    0.432859    0.000000
      2          8           0       -1.046289   -0.453200    0.000000
      3          8           0        1.186318    0.120154    0.000000
      4          1           0       -0.392427    1.451216    0.000000
      5          1           0       -0.727806   -1.384003    0.000000
 ---------------------------------------------------------------------

 SCF Done:  E(RB3LYP) =  -189.686346049     A.U. after   13 cycles

 Excitation energies and oscillator strengths:

 Excited State   1:      Singlet-A"     5.4305 eV  228.31 nm  f=0.0010  <S**2>=0.000
      12 -> 13         0.70680
 This state for optimization and/or second-order correction.
 Total Energy, E(TD-HF/TD-KS) =  -189.486778785
 Copying the excited state density for this state as the 1-particle RhoCI density.

 Excited State   2:      Singlet-A'     7.9495 eV  155.96 nm  f=0.0397  <S**2>=0.000
      11 -> 13         0.51535
      12 -> 14        -0.46731

 Excited State   3:      Singlet-A"     8.5543 eV  144.94 nm  f=0.0007  <S**2>=0.000
      10 -> 13         0.70154

 Excited State   4:      Singlet-A'     8.9658 eV  138.29 nm  f=0.1842  <S**2>=0.000
      11 -> 13         0.43561
      12 -> 14         0.52297
      12 -> 16        -0.14983

 The electronic state is 1-A'.
 Alpha  occ. eigenvalues --  -19.21212 -19.16796 -10.34301  -1.12911  -1.04682
 Alpha  occ. eigenvalues --   -0.68124  -0.53614  -0.48377  -0.45365  -0.40034
 Alpha  occ. eigenvalues --   -0.33431  -0.29785
 Alpha virt. eigenvalues --   -0.02415   0.05190   0.12479   0.23089   0.25664
 Alpha virt. eigenvalues --    0.50464   0.54538   0.65762   0.70497   0.78657
 Alpha virt. eigenvalues --    0.85844   0.89543   0.92580   0.98298   1.00315

 Mulliken charges:
               1
     1  C    0.351128
     2  O   -0.523183
     3  O   -0.381896
     4  H    0.168900
     5  H    0.385051
 Sum of Mulliken charges =   0.00000

 Dipole moment (field-independent basis, Debye):
    X=             -1.3418    Y=             -0.4725    Z=              0.0000  Tot=              1.4226
 Quadrupole moment (field-independent basis, Debye-Ang):
   XX=            -22.9958   YY=            -12.2671   ZZ=            -16.8192
   XY=              0.1127   XZ=              0.0000   YZ=              0.0000

 1\1\GINC-COMPUTE-0-80\SP\RB3LYP TD-FC\6-31G\C1H2O2\AZH\08-Aug-2014\0\\
 # B3LYP 6-31g TD(singlets,nstates=4)\\HCOOH molecule: transition densi
 ty matrix\\0,1\C,0,0.,0.432859,0.\O,0,-1.046288,-0.453201,0.\O,0,1.186
 318,0.120155,0.\H,0,-0.392428,1.451216,0.\H,0,-0.727805,-1.384004,0.\\
 Version=EM64L-G09RevD.01\State=1-A'\HF=-189.686346\RMSD=2.482e-09\PG=C
 S [SG(C1H2O2)]\\@

 Normal termination of Gaussian 09 at Fri Aug  8 08:31:07 2014.
